 Output coordinates in angstroms (scale by  1.889725989 to convert to a.u.)

  No.       Tag          Charge          X              Y              Z
 ---- ---------------- ---------- -------------- -------------- --------------
    1 C                    6.0000    -0.58154345    -0.00994946     0.00774973
    2 N                    7.0000     0.86967322     0.03690432    -0.46335876
    3 H                    1.0000    -0.71941665    -0.06613839     1.11366857
    4 H                    1.0000    -1.07001019    -0.89598293    -0.44639712
    5 H                    1.0000    -1.09956208     0.89953452    -0.35885409
    6 H                    1.0000     1.31396496    -0.80457239     0.03349844
    7 H                    1.0000     1.28689500     0.84020163     0.11368822

         Total DFT energy =      -94.507546062335

                       DFT Final Molecular Orbital Analysis
                       ------------------------------------

 Vector    1  Occ=2.000000D+00  E=-1.377015D+01

 Vector    2  Occ=2.000000D+00  E=-9.730722D+00

 Vector    3  Occ=2.000000D+00  E=-7.404850D-01

 Vector    4  Occ=2.000000D+00  E=-5.503646D-01

 Vector    5  Occ=2.000000D+00  E=-3.716128D-01

 Vector    6  Occ=2.000000D+00  E=-3.363761D-01

 Vector    7  Occ=2.000000D+00  E=-2.905175D-01

 Vector    8  Occ=2.000000D+00  E=-2.736352D-01

 Vector    9  Occ=2.000000D+00  E=-9.323067D-02

 Vector   10  Occ=0.000000D+00  E= 2.843348D-01

 Vector   11  Occ=0.000000D+00  E= 3.174028D-01

 Vector   12  Occ=0.000000D+00  E= 3.312704D-01

 Vector   13  Occ=0.000000D+00  E= 4.056979D-01

 Vector   14  Occ=0.000000D+00  E= 4.070783D-01

 Vector   15  Occ=0.000000D+00  E= 4.180207D-01

     Multipole analysis of the density
     ---------------------------------

     L   x y z        total         alpha         beta         nuclear
     -   - - -        -----         -----         ----         -------
     0   0 0 0     -0.000000     -9.000000     -9.000000     18.000000

     1   1 0 0     -0.047676     -2.206777     -2.206777      4.365877
     1   0 1 0     -0.033262     -0.178841     -0.178841      0.324420
     1   0 0 1      0.666137      2.923324      2.923324     -5.180512

     2   2 0 0     -9.310176    -28.898328    -28.898328     48.486479
     2   1 1 0     -0.076515     -0.575075     -0.575075      1.073635
     2   1 0 1      1.451339      5.343904      5.343904     -9.236469
     2   0 2 0     -8.967697     -9.804243     -9.804243     10.640790
     2   0 1 1      0.122945      0.147333      0.147333     -0.171721

 Total times  cpu:        1.1s     wall:        1.1s
