 Output coordinates in angstroms (scale by  1.889725989 to convert to a.u.)

  No.       Tag          Charge          X              Y              Z
 ---- ---------------- ---------- -------------- -------------- --------------
    1 C                    6.0000    -0.58362205    -0.01005394     0.00919663
    2 N                    7.0000     0.86534746     0.03582583    -0.44270326
    3 H                    1.0000    -0.72386452    -0.06597990     1.10888527
    4 H                    1.0000    -1.06789677    -0.89108264    -0.44581135
    5 H                    1.0000    -1.09728609     0.89467392    -0.35874490
    6 H                    1.0000     1.31721500    -0.80485251     0.02445723
    7 H                    1.0000     1.29011773     0.84146716     0.10472218

         Total DFT energy =      -94.638445870026

                       DFT Final Molecular Orbital Analysis
                       ------------------------------------

 Vector    1  Occ=2.000000D+00  E=-1.410723D+01

 Vector    2  Occ=2.000000D+00  E=-1.003026D+01

 Vector    3  Occ=2.000000D+00  E=-8.206571D-01

 Vector    4  Occ=2.000000D+00  E=-6.206964D-01

 Vector    5  Occ=2.000000D+00  E=-4.279064D-01

 Vector    6  Occ=2.000000D+00  E=-3.899661D-01

 Vector    7  Occ=2.000000D+00  E=-3.422310D-01

 Vector    8  Occ=2.000000D+00  E=-3.258450D-01

 Vector    9  Occ=2.000000D+00  E=-1.477921D-01

 Vector   10  Occ=0.000000D+00  E= 3.353863D-01

 Vector   11  Occ=0.000000D+00  E= 3.750978D-01

 Vector   12  Occ=0.000000D+00  E= 3.856712D-01

 Vector   13  Occ=0.000000D+00  E= 4.577572D-01

 Vector   14  Occ=0.000000D+00  E= 4.625216D-01

 Vector   15  Occ=0.000000D+00  E= 4.701604D-01

     Multipole analysis of the density
     ---------------------------------

     L   x y z        total         alpha         beta         nuclear
     -   - - -        -----         -----         ----         -------
     0   0 0 0     -0.000000     -9.000000     -9.000000     18.000000

     1   1 0 0     -0.051040     -2.174124     -2.174124      4.297209
     1   0 1 0     -0.033065     -0.172136     -0.172136      0.311206
     1   0 0 1      0.660977      2.796803      2.796803     -4.932628

     2   2 0 0     -9.294191    -28.847040    -28.847040     48.399888
     2   1 1 0     -0.075552     -0.565005     -0.565005      1.054457
     2   1 0 1      1.434890      5.144647      5.144647     -8.854404
     2   0 2 0     -8.961555     -9.773574     -9.773574     10.585594
     2   0 1 1      0.123816      0.133346      0.133346     -0.142877

 Total times  cpu:        0.5s     wall:        0.5s
